# vtk DataFile Version 4.0
vtk output
ASCII
DATASET UNSTRUCTURED_GRID
POINTS 3535 float
1.0000000e+02 1.0000000e+01 1.4000000e+01 
9.9000000e+01 1.0000000e+01 1.4000000e+01 
1.0000000e+02 9.0000000e+00 1.4000000e+01 
9.9000000e+01 9.0000000e+00 1.4000000e+01 
9.8000000e+01 1.0000000e+01 1.4000000e+01 
1.0000000e+02 8.0000000e+00 1.4000000e+01 
9.9000000e+01 8.0000000e+00 1.4000000e+01 
9.8000000e+01 9.0000000e+00 1.4000000e+01 
9.8000000e+01 8.0000000e+00 1.4000000e+01 
9.7000000e+01 1.0000000e+01 1.4000000e+01 
1.0000000e+02 7.0000000e+00 1.4000000e+01 
9.9000000e+01 7.0000000e+00 1.4000000e+01 
9.7000000e+01 9.0000000e+00 1.4000000e+01 
9.8000000e+01 7.0000000e+00 1.4000000e+01 
9.7000000e+01 8.0000000e+00 1.4000000e+01 
9.6000000e+01 1.0000000e+01 1.4000000e+01 
1.0000000e+02 6.0000000e+00 1.4000000e+01 
9.9000000e+01 6.0000000e+00 1.4000000e+01 
9.6000000e+01 9.0000000e+00 1.4000000e+01 
9.7000000e+01 7.0000000e+00 1.4000000e+01 
9.6000000e+01 8.0000000e+00 1.4000000e+01 
9.8000000e+01 6.0000000e+00 1.4000000e+01 
9.6000000e+01 7.0000000e+00 1.4000000e+01 
1.0000000e+02 5.0000000e+00 1.4000000e+01 
9.5000000e+01 1.0000000e+01 1.4000000e+01 
9.7000000e+01 6.0000000e+00 1.4000000e+01 
9.5000000e+01 9.0000000e+00 1.4000000e+01 
9.9000000e+01 5.0000000e+00 1.4000000e+01 
9.8000000e+01 5.0000000e+00 1.4000000e+01 
9.5000000e+01 8.0000000e+00 1.4000000e+01 
9.6000000e+01 6.0000000e+00 1.4000000e+01 
9.5000000e+01 7.0000000e+00 1.4000000e+01 
9.7000000e+01 5.0000000e+00 1.4000000e+01 
1.0000000e+02 4.0000000e+00 1.4000000e+01 
9.4000000e+01 1.0000000e+01 1.4000000e+01 
9.9000000e+01 4.0000000e+00 1.4000000e+01 
9.4000000e+01 9.0000000e+00 1.4000000e+01 
9.4000000e+01 8.0000000e+00 1.4000000e+01 
9.8000000e+01 4.0000000e+00 1.4000000e+01 
9.6000000e+01 5.0000000e+00 1.4000000e+01 
9.5000000e+01 6.0000000e+00 1.4000000e+01 
9.4000000e+01 7.0000000e+00 1.4000000e+01 
9.7000000e+01 4.0000000e+00 1.4000000e+01 
1.0000000e+02 3.0000000e+00 1.4000000e+01 
9.3000000e+01 1.0000000e+01 1.4000000e+01 
9.5000000e+01 5.0000000e+00 1.4000000e+01 
9.9000000e+01 3.0000000e+00 1.4000000e+01 
9.3000000e+01 9.0000000e+00 1.4000000e+01 
9.6000000e+01 4.0000000e+00 1.4000000e+01 
9.4000000e+01 6.0000000e+00 1.4000000e+01 
9.3000000e+01 8.0000000e+00 1.4000000e+01 
9.8000000e+01 3.0000000e+00 1.4000000e+01 
9.3000000e+01 7.0000000e+00 1.4000000e+01 
9.7000000e+01 3.0000000e+00 1.4000000e+01 
9.5000000e+01 4.0000000e+00 1.4000000e+01 
9.4000000e+01 5.0000000e+00 1.4000000e+01 
1.0000000e+02 2.0000000e+00 1.4000000e+01 
9.2000000e+01 1.0000000e+01 1.4000000e+01 
9.6000000e+01 3.0000000e+00 1.4000000e+01 
9.9000000e+01 2.0000000e+00 1.4000000e+01 
9.2000000e+01 9.0000000e+00 1.4000000e+01 
9.3000000e+01 6.0000000e+00 1.4000000e+01 
9.8000000e+01 2.0000000e+00 1.4000000e+01 
9.2000000e+01 8.0000000e+00 1.4000000e+01 
9.4000000e+01 4.0000000e+00 1.4000000e+01 
9.2000000e+01 7.0000000e+00 1.4000000e+01 
9.7000000e+01 2.0000000e+00 1.4000000e+01 
9.3000000e+01 5.0000000e+00 1.4000000e+01 
9.5000000e+01 3.0000000e+00 1.4000000e+01 
9.6000000e+01 2.0000000e+00 1.4000000e+01 
9.2000000e+01 6.0000000e+00 1.4000000e+01 
1.0000000e+02 1.0000000e+00 1.4000000e+01 
9.1000000e+01 1.0000000e+01 1.4000000e+01 
9.9000000e+01 1.0000000e+00 1.4000000e+01 
9.1000000e+01 9.0000000e+00 1.4000000e+01 
9.8000000e+01 1.0000000e+00 1.4000000e+01 
9.3000000e+01 4.0000000e+00 1.4000000e+01 
9.4000000e+01 3.0000000e+00 1.4000000e+01 
9.1000000e+01 8.0000000e+00 1.4000000e+01 
9.5000000e+01 2.0000000e+00 1.4000000e+01 
9.2000000e+01 5.0000000e+00 1.4000000e+01 
9.7000000e+01 1.0000000e+00 1.4000000e+01 
9.1000000e+01 7.0000000e+00 1.4000000e+01 
9.6000000e+01 1.0000000e+00 1.4000000e+01 
9.1000000e+01 6.0000000e+00 1.4000000e+01 
9.3000000e+01 3.0000000e+00 1.4000000e+01 
9.4000000e+01 2.0000000e+00 1.4000000e+01 
1.0000000e+02 0.0000000e+00 1.4000000e+01 
9.0000000e+01 1.0000000e+01 1.4000000e+01 
9.2000000e+01 4.0000000e+00 1.4000000e+01 
9.9000000e+01 0.0000000e+00 1.4000000e+01 
1.0000000e+02 0.0000000e+00 1.3000000e+01 
9.0000000e+01 9.0000000e+00 1.4000000e+01 
9.9000000e+01 0.0000000e+00 1.3000000e+01 
9.8000000e+01 0.0000000e+00 1.4000000e+01 
1.0000000e+02 0.0000000e+00 1.2000000e+01 
9.0000000e+01 8.0000000e+00 1.4000000e+01 
9.8000000e+01 0.0000000e+00 1.3000000e+01 
9.9000000e+01 0.0000000e+00 1.2000000e+01 
9.1000000e+01 5.0000000e+00 1.4000000e+01 
9.5000000e+01 1.0000000e+00 1.4000000e+01 
9.8000000e+01 0.0000000e+00 1.2000000e+01 
9.7000000e+01 0.0000000e+00 1.4000000e+01 
1.0000000e+02 0.0000000e+00 1.1000000e+01 
9.0000000e+01 7.0000000e+00 1.4000000e+01 
9.9000000e+01 0.0000000e+00 1.1000000e+01 
9.7000000e+01 0.0000000e+00 1.3000000e+01 
9.3000000e+01 2.0000000e+00 1.4000000e+01 
9.8000000e+01 0.0000000e+00 1.1000000e+01 
9.7000000e+01 0.0000000e+00 1.2000000e+01 
9.2000000e+01 3.0000000e+00 1.4000000e+01 
9.6000000e+01 0.0000000e+00 1.4000000e+01 
1.0000000e+02 0.0000000e+00 1.0000000e+01 
9.0000000e+01 6.0000000e+00 1.4000000e+01 
9.6000000e+01 0.0000000e+00 1.3000000e+01 
9.9000000e+01 0.0000000e+00 1.0000000e+01 
9.4000000e+01 1.0000000e+00 1.4000000e+01 
9.1000000e+01 4.0000000e+00 1.4000000e+01 
9.7000000e+01 0.0000000e+00 1.1000000e+01 
9.6000000e+01 0.0000000e+00 1.2000000e+01 
9.8000000e+01 0.0000000e+00 1.0000000e+01 
8.9000000e+01 1.0000000e+01 1.4000000e+01 
8.9000000e+01 9.0000000e+00 1.4000000e+01 
9.6000000e+01 0.0000000e+00 1.1000000e+01 
9.5000000e+01 0.0000000e+00 1.4000000e+01 
1.0000000e+02 0.0000000e+00 9.0000000e+00 
9.0000000e+01 5.0000000e+00 1.4000000e+01 
8.9000000e+01 8.0000000e+00 1.4000000e+01 
9.7000000e+01 0.0000000e+00 1.0000000e+01 
9.5000000e+01 0.0000000e+00 1.3000000e+01 
9.9000000e+01 0.0000000e+00 9.0000000e+00 
9.2000000e+01 2.0000000e+00 1.4000000e+01 
9.5000000e+01 0.0000000e+00 1.2000000e+01 
9.8000000e+01 0.0000000e+00 9.0000000e+00 
9.3000000e+01 1.0000000e+00 1.4000000e+01 
9.1000000e+01 3.0000000e+00 1.4000000e+01 
8.9000000e+01 7.0000000e+00 1.4000000e+01 
9.6000000e+01 0.0000000e+00 1.0000000e+01 
9.5000000e+01 0.0000000e+00 1.1000000e+01 
9.7000000e+01 0.0000000e+00 9.0000000e+00 
9.4000000e+01 0.0000000e+00 1.4000000e+01 
1.0000000e+02 0.0000000e+00 8.0000000e+00 
9.0000000e+01 4.0000000e+00 1.4000000e+01 
8.9000000e+01 6.0000000e+00 1.4000000e+01 
9.4000000e+01 0.0000000e+00 1.3000000e+01 
9.9000000e+01 0.0000000e+00 8.0000000e+00 
9.4000000e+01 0.0000000e+00 1.2000000e+01 
9.8000000e+01 0.0000000e+00 8.0000000e+00 
9.6000000e+01 0.0000000e+00 9.0000000e+00 
9.5000000e+01 0.0000000e+00 1.0000000e+01 
8.8000000e+01 1.0000000e+01 1.4000000e+01 
9.4000000e+01 0.0000000e+00 1.1000000e+01 
9.2000000e+01 1.0000000e+00 1.4000000e+01 
8.8000000e+01 9.0000000e+00 1.4000000e+01 
9.7000000e+01 0.0000000e+00 8.0000000e+00 
9.1000000e+01 2.0000000e+00 1.4000000e+01 
8.9000000e+01 5.0000000e+00 1.4000000e+01 
8.8000000e+01 8.0000000e+00 1.4000000e+01 
1.0000000e+02 0.0000000e+00 7.0000000e+00 
9.3000000e+01 0.0000000e+00 1.4000000e+01 
9.0000000e+01 3.0000000e+00 1.4000000e+01 
9.3000000e+01 0.0000000e+00 1.3000000e+01 
9.5000000e+01 0.0000000e+00 9.0000000e+00 
9.9000000e+01 0.0000000e+00 7.0000000e+00 
9.4000000e+01 0.0000000e+00 1.0000000e+01 
9.6000000e+01 0.0000000e+00 8.0000000e+00 
9.8000000e+01 0.0000000e+00 7.0000000e+00 
8.8000000e+01 7.0000000e+00 1.4000000e+01 
9.3000000e+01 0.0000000e+00 1.2000000e+01 
8.9000000e+01 4.0000000e+00 1.4000000e+01 
9.7000000e+01 0.0000000e+00 7.0000000e+00 
9.3000000e+01 0.0000000e+00 1.1000000e+01 
8.8000000e+01 6.0000000e+00 1.4000000e+01 
9.4000000e+01 0.0000000e+00 9.0000000e+00 
9.5000000e+01 0.0000000e+00 8.0000000e+00 
9.1000000e+01 1.0000000e+00 1.4000000e+01 
1.0000000e+02 0.0000000e+00 6.0000000e+00 
9.2000000e+01 0.0000000e+00 1.4000000e+01 
9.0000000e+01 2.0000000e+00 1.4000000e+01 
9.2000000e+01 0.0000000e+00 1.3000000e+01 
9.6000000e+01 0.0000000e+00 7.0000000e+00 
9.3000000e+01 0.0000000e+00 1.0000000e+01 
9.9000000e+01 0.0000000e+00 6.0000000e+00 
9.2000000e+01 0.0000000e+00 1.2000000e+01 
9.8000000e+01 0.0000000e+00 6.0000000e+00 
8.8000000e+01 5.0000000e+00 1.4000000e+01 
8.7000000e+01 1.0000000e+01 1.4000000e+01 
8.9000000e+01 3.0000000e+00 1.4000000e+01 
8.7000000e+01 9.0000000e+00 1.4000000e+01 
9.4000000e+01 0.0000000e+00 8.0000000e+00 
8.7000000e+01 8.0000000e+00 1.4000000e+01 
9.2000000e+01 0.0000000e+00 1.1000000e+01 
9.7000000e+01 0.0000000e+00 6.0000000e+00 
9.3000000e+01 0.0000000e+00 9.0000000e+00 
9.5000000e+01 0.0000000e+00 7.0000000e+00 
8.7000000e+01 7.0000000e+00 1.4000000e+01 
9.6000000e+01 0.0000000e+00 6.0000000e+00 
9.2000000e+01 0.0000000e+00 1.0000000e+01 
8.8000000e+01 4.0000000e+00 1.4000000e+01 
1.0000000e+02 0.0000000e+00 5.0000000e+00 
9.1000000e+01 0.0000000e+00 1.4000000e+01 
9.0000000e+01 1.0000000e+00 1.4000000e+01 
9.1000000e+01 0.0000000e+00 1.3000000e+01 
9.9000000e+01 0.0000000e+00 5.0000000e+00 
9.8000000e+01 0.0000000e+00 5.0000000e+00 
9.4000000e+01 0.0000000e+00 7.0000000e+00 
9.3000000e+01 0.0000000e+00 8.0000000e+00 
8.9000000e+01 2.0000000e+00 1.4000000e+01 
9.1000000e+01 0.0000000e+00 1.2000000e+01 
8.7000000e+01 6.0000000e+00 1.4000000e+01 
9.5000000e+01 0.0000000e+00 6.0000000e+00 
9.2000000e+01 0.0000000e+00 9.0000000e+00 
9.1000000e+01 0.0000000e+00 1.1000000e+01 
9.7000000e+01 0.0000000e+00 5.0000000e+00 
8.8000000e+01 3.0000000e+00 1.4000000e+01 
8.7000000e+01 5.0000000e+00 1.4000000e+01 
1.0000000e+02 1.0000000e+01 0.0000000e+00 
8.6000000e+01 1.0000000e+01 1.4000000e+01 
8.6000000e+01 9.0000000e+00 1.4000000e+01 
1.0000000e+02 9.0000000e+00 0.0000000e+00 
9.9000000e+01 1.0000000e+01 0.0000000e+00 
9.6000000e+01 0.0000000e+00 5.0000000e+00 
9.1000000e+01 0.0000000e+00 1.0000000e+01 
9.3000000e+01 0.0000000e+00 7.0000000e+00 
9.9000000e+01 9.0000000e+00 0.0000000e+00 
9.4000000e+01 0.0000000e+00 6.0000000e+00 
1.0000000e+02 8.0000000e+00 0.0000000e+00 
9.8000000e+01 1.0000000e+01 0.0000000e+00 
1.0000000e+02 0.0000000e+00 4.0000000e+00 
9.0000000e+01 0.0000000e+00 1.4000000e+01 
[...]
POINT_DATA 3535
FIELD FieldData 7
DISPLACEMENT 3 3535  float
8.7533538e-02 3.1981446e+00 -1.0410190e+01 
8.7537815e-02 3.1548465e+00 -1.0246440e+01 
1.3082539e-01 3.1981488e+00 -9.9468552e+00 
1.3082518e-01 3.1548462e+00 -9.7839067e+00 
8.7569952e-02 3.1115663e+00 -1.0082294e+01 
1.7413703e-01 3.1981827e+00 -9.4814010e+00 
1.7412358e-01 3.1548442e+00 -9.3193490e+00 
1.3082351e-01 3.1115545e+00 -9.6215927e+00 
1.7410433e-01 3.1115411e+00 -9.1589129e+00 
8.7627399e-02 3.0683515e+00 -9.9179406e+00 
2.1752650e-01 3.1982459e+00 -9.0114228e+00 
2.1750957e-01 3.1548283e+00 -8.8502951e+00 
1.3081104e-01 3.0683398e+00 -9.4601818e+00 
2.1748074e-01 3.1115054e+00 -8.6919875e+00 
1.7405239e-01 3.0683336e+00 -9.0005313e+00 
8.7680945e-02 3.0252363e+00 -9.7538642e+00 
2.6105596e-01 3.1983058e+00 -8.5336430e+00 
2.6104345e-01 3.1547716e+00 -8.3734899e+00 
1.3077320e-01 3.0252332e+00 -9.3000924e+00 
2.1739841e-01 3.0683145e+00 -8.5371228e+00 
1.7395283e-01 3.0252441e+00 -8.8445924e+00 
2.6100966e-01 3.1114332e+00 -8.2182152e+00 
2.1724233e-01 3.0252570e+00 -8.3859416e+00 
3.0477258e-01 3.1983015e+00 -8.0412464e+00 
8.7706159e-02 2.9822331e+00 -9.5905831e+00 
2.6088956e-01 3.0682782e+00 -8.0681632e+00 
1.3069795e-01 2.9822435e+00 -9.1417034e+00 
3.0478338e-01 3.1546387e+00 -7.8843511e+00 
3.0473564e-01 3.1113094e+00 -7.7352470e+00 
1.7379764e-01 2.9822750e+00 -8.6913046e+00 
2.6067094e-01 3.0252731e+00 -7.9229494e+00 
2.1701221e-01 2.9823209e+00 -8.2383511e+00 
3.0456818e-01 3.0682289e+00 -7.5924185e+00 
3.4875235e-01 3.1981841e+00 -7.5235482e+00 
8.7687418e-02 2.9393419e+00 -9.4285311e+00 
3.4876964e-01 3.1543646e+00 -7.3807060e+00 
1.3057652e-01 2.9393680e+00 -8.9852700e+00 
1.7358607e-01 2.9394196e+00 -8.5407068e+00 
3.4872248e-01 3.1111235e+00 -7.2425934e+00 
3.0424895e-01 3.0253114e+00 -7.4549486e+00 
2.6035246e-01 2.9823868e+00 -7.7820674e+00 
2.1671141e-01 2.9394943e+00 -8.0941163e+00 
3.4842907e-01 3.0682043e+00 -7.1098413e+00 
3.9294194e-01 3.1977072e+00 -6.9934821e+00 
8.7616373e-02 2.8965578e+00 -9.2680148e+00 
3.0382955e-01 2.9824819e+00 -7.3221167e+00 
3.9311853e-01 3.1538848e+00 -6.8666003e+00 
1.3040454e-01 2.8966003e+00 -8.8309200e+00 
3.4799658e-01 3.0253883e+00 -6.9821060e+00 
2.5995842e-01 2.9395944e+00 -7.6450112e+00 
1.7331835e-01 2.8966704e+00 -8.3927257e+00 
3.9291551e-01 3.1109252e+00 -6.7423303e+00 
2.1635002e-01 2.8967671e+00 -7.9529469e+00 
3.9253342e-01 3.0682136e+00 -6.6218984e+00 
3.4742179e-01 2.9826405e+00 -6.8587652e+00 
3.0332270e-01 2.9397316e+00 -7.1932550e+00 
4.3776104e-01 3.1969255e+00 -6.4603169e+00 
8.7490325e-02 2.8538757e+00 -9.1092182e+00 
3.9183487e-01 3.0255983e+00 -6.5055665e+00 
4.3757553e-01 3.1531097e+00 -6.3485683e+00 
1.3017962e-01 2.8539345e+00 -8.6786803e+00 
2.5949850e-01 2.8968928e+00 -7.5112971e+00 
4.3757573e-01 3.1106562e+00 -6.2384272e+00 
1.7299682e-01 2.8540213e+00 -8.2472216e+00 
3.4679804e-01 2.9399103e+00 -6.7391532e+00 
2.1593239e-01 2.8541362e+00 -7.8145380e+00 
4.3661544e-01 3.0685410e+00 -6.1312925e+00 
3.0276182e-01 2.8970494e+00 -7.0677623e+00 
3.9111085e-01 2.9828649e+00 -6.3929496e+00 
4.3571818e-01 3.0259178e+00 -6.0273365e+00 
2.5898524e-01 2.8542789e+00 -7.3804827e+00 
4.8216493e-01 3.1949380e+00 -5.9303329e+00 
8.7308760e-02 2.8112919e+00 -8.9522254e+00 
4.8325211e-01 3.1516208e+00 -5.8319043e+00 
1.2990137e-01 2.8113665e+00 -8.5285068e+00 
4.8173887e-01 3.1112053e+00 -5.7352253e+00 
3.4613270e-01 2.8972407e+00 -6.6226519e+00 
3.9036561e-01 2.9401406e+00 -6.2834782e+00 
1.7262210e-01 2.8114691e+00 -8.1040197e+00 
4.3485254e-01 2.9831755e+00 -5.9261976e+00 
3.0215230e-01 2.8544500e+00 -6.9451155e+00 
4.8057990e-01 3.0690343e+00 -5.6414077e+00 
2.1546250e-01 2.8115994e+00 -7.6785933e+00 
4.7957898e-01 3.0263817e+00 -5.5499656e+00 
2.5842124e-01 2.8117569e+00 -7.2521769e+00 
3.8960535e-01 2.8974620e+00 -6.1766018e+00 
4.3401559e-01 2.9404071e+00 -5.8274027e+00 
5.2590600e-01 3.1859704e+00 -5.4097941e+00 
8.7072453e-02 2.7688039e+00 -8.7970469e+00 
3.4543062e-01 2.8546475e+00 -6.5087310e+00 
5.2560549e-01 3.1517550e+00 -5.3211731e+00 
4.4763168e-01 2.6789919e+00 -5.3965928e+00 
1.2956952e-01 2.7688942e+00 -8.3803110e+00 
4.4516457e-01 2.6526018e+00 -5.3176089e+00 
5.2502624e-01 3.1118263e+00 -5.2371487e+00 
3.7066597e-01 2.1839624e+00 -5.3898659e+00 
1.7219485e-01 2.7690121e+00 -7.9629330e+00 
4.4559859e-01 2.6230725e+00 -5.2353734e+00 
3.6971400e-01 2.1650244e+00 -5.3127307e+00 
3.0149665e-01 2.8119399e+00 -6.8248732e+00 
4.7866319e-01 2.9835257e+00 -5.4604080e+00 
3.6884260e-01 2.1438482e+00 -5.2335968e+00 
5.2428163e-01 3.0697190e+00 -5.1558008e+00 
2.9550014e-01 1.6986418e+00 -5.3849343e+00 
2.1494085e-01 2.7691574e+00 -7.5448387e+00 
2.9433294e-01 1.6867122e+00 -5.3088639e+00 
4.4581132e-01 2.5914651e+00 -5.1549621e+00 
4.3317646e-01 2.8977064e+00 -5.7305151e+00 
2.9377795e-01 1.6729204e+00 -5.2311490e+00 
3.6906713e-01 2.1210054e+00 -5.1540178e+00 
3.8881775e-01 2.8548677e+00 -6.0718510e+00 
5.2342809e-01 3.0268777e+00 -5.0761224e+00 
2.2067231e-01 1.2216708e+00 -5.3808641e+00 
2.5780715e-01 2.7693288e+00 -7.1260423e+00 
4.4581482e-01 2.5587884e+00 -5.0756340e+00 
2.1979601e-01 1.2163118e+00 -5.3056051e+00 
4.7777181e-01 2.9406956e+00 -5.3723355e+00 
3.4468719e-01 2.8121461e+00 -6.3969536e+00 
2.9357659e-01 1.6577280e+00 -5.1529181e+00 
3.6929545e-01 2.0970568e+00 -5.0752105e+00 
2.1918311e-01 1.2093022e+00 -5.2289345e+00 
8.6781936e-02 2.7264109e+00 -8.6436440e+00 
1.2918417e-01 2.7265167e+00 -8.2339795e+00 
2.9377133e-01 1.6415070e+00 -5.0746496e+00 
5.2251476e-01 2.9838991e+00 -4.9975244e+00 
1.4635265e-01 7.5212734e-01 -5.3776836e+00 
3.0079287e-01 2.7695246e+00 -6.7066703e+00 
1.7171474e-01 2.7266500e+00 -7.8237764e+00 
2.1897691e-01 1.2010449e+00 -5.1515511e+00 
4.4560418e-01 2.5255334e+00 -4.9972195e+00 
1.4561081e-01 7.5296574e-01 -5.3028938e+00 
4.3231291e-01 2.8551032e+00 -5.6351742e+00 
3.6943375e-01 2.0723721e+00 -4.9970012e+00 
1.4508439e-01 7.5228744e-01 -5.2269166e+00 
4.7686744e-01 2.8979602e+00 -5.2854390e+00 
3.8799248e-01 2.8123711e+00 -5.9688464e+00 
2.1436712e-01 2.7268101e+00 -7.4130284e+00 
2.1900680e-01 1.1918431e+00 -5.0739693e+00 
2.9398960e-01 1.6245237e+00 -4.9967683e+00 
1.4481675e-01 7.5046091e-01 -5.1502231e+00 
5.2156115e-01 2.9409926e+00 -4.9196807e+00 
7.2306693e-02 2.8938638e-01 -5.3751235e+00 
3.4389767e-01 2.7697421e+00 -6.2869681e+00 
2.5714171e-01 2.7269961e+00 -7.0017932e+00 
4.4522315e-01 2.4919255e+00 -4.9194590e+00 
7.1709874e-02 2.9609695e-01 -5.3006716e+00 
3.6942024e-01 2.0471468e+00 -4.9193439e+00 
7.1253399e-02 3.0138252e-01 -5.2251686e+00 
1.4479548e-01 7.4776084e-01 -5.0731662e+00 
2.1920274e-01 1.1819088e+00 -4.9964384e+00 
8.6437663e-02 2.6841125e+00 -8.4919477e+00 
2.9415054e-01 1.6069384e+00 -4.9192553e+00 
4.7593340e-01 2.8553469e+00 -5.1994835e+00 
1.2874520e-01 2.6842339e+00 -8.0893893e+00 
7.0994795e-02 3.0559364e-01 -5.1489706e+00 
4.3141167e-01 2.8126101e+00 -5.5410958e+00 
3.0003848e-01 2.7272062e+00 -6.5902084e+00 
1.7118135e-01 2.6843826e+00 -7.6863756e+00 
-1.5375534e-03 -1.6697103e-01 -5.3731123e+00 
5.2057563e-01 2.8982224e+00 -4.8423898e+00 
3.8712186e-01 2.7699779e+00 -5.8672891e+00 
4.4470978e-01 2.4580687e+00 -4.8422041e+00 
1.4491694e-01 7.4437690e-01 -4.9960271e+00 
-2.0109969e-03 -1.5468335e-01 -5.2988757e+00 
2.1940987e-01 1.1713756e+00 -4.9191362e+00 
7.0920649e-02 3.0899414e-01 -5.0723545e+00 
-2.3892928e-03 -1.4375438e-01 -5.2236952e+00 
2.1374033e-01 2.6845581e+00 -7.2829476e+00 
3.6925804e-01 2.0214828e+00 -4.8421244e+00 
3.4305781e-01 2.7274378e+00 -6.1784950e+00 
-2.6300242e-03 -1.3383722e-01 -5.1478518e+00 
2.9420372e-01 1.5888403e+00 -4.8421024e+00 
2.5642331e-01 2.6847595e+00 -6.8791907e+00 
1.4511693e-01 7.4042855e-01 -4.9189542e+00 
7.0997247e-02 3.1176629e-01 -4.9955481e+00 
4.7495928e-01 2.8128574e+00 -5.1142930e+00 
-7.5258784e-02 -6.1720903e-01 -5.3715745e+00 
5.1955810e-01 2.8555983e+00 -4.7655210e+00 
4.3046428e-01 2.7702278e+00 -5.4480615e+00 
4.4408760e-01 2.4240174e+00 -4.7653426e+00 
-2.7239356e-03 -1.2466857e-01 -5.0715704e+00 
2.1957267e-01 1.1603201e+00 -4.8420851e+00 
-7.5618879e-02 -5.9962586e-01 -5.2974691e+00 
3.6896209e-01 1.9954399e+00 -4.7652672e+00 
-7.5922686e-02 -5.8335076e-01 -5.2224893e+00 
2.9923097e-01 2.6849852e+00 -6.4752464e+00 
8.6039784e-02 2.6419088e+00 -8.3418727e+00 
3.8620049e-01 2.7276881e+00 -5.7669467e+00 
1.2825251e-01 2.6420458e+00 -7.9464167e+00 
7.1163769e-02 3.1402382e-01 -4.9187175e+00 
1.7059412e-01 2.6422101e+00 -7.5505721e+00 
2.9414002e-01 1.5702819e+00 -4.7652632e+00 
-7.6136950e-02 -5.6802623e-01 -5.1468844e+00 
1.4532057e-01 7.3598345e-01 -4.8420420e+00 
-2.6881338e-03 -1.1606684e-01 -4.9950497e+00 
2.1305948e-01 2.6424015e+00 -7.1544113e+00 
-7.6241502e-02 -5.5338197e-01 -5.0708490e+00 
2.1965730e-01 1.1487854e+00 -4.7652912e+00 
3.4216431e-01 2.6852330e+00 -6.0713135e+00 
-1.4891727e-01 -1.0614666e+00 -5.3704739e+00 
5.1850443e-01 2.8131133e+00 -4.6889874e+00 
4.7393878e-01 2.7704875e+00 -5.0297376e+00 
4.4337305e-01 2.3898063e+00 -4.6888007e+00 
-1.4917049e-01 -1.0388722e+00 -5.2964203e+00 
-1.4940758e-01 -1.0175431e+00 -5.2215377e+00 
-2.5500780e-03 -1.0792064e-01 -4.9184381e+00 
7.1375936e-02 3.1582895e-01 -4.8419589e+00 
4.2946540e-01 2.7279538e+00 -5.3559050e+00 
3.6854807e-01 1.9690612e+00 -4.6887116e+00 
2.5565043e-01 2.6426190e+00 -6.7580370e+00 
-7.6233353e-02 -5.3923470e-01 -4.9945557e+00 
1.4549150e-01 7.3107649e-01 -4.7653197e+00 
2.9396282e-01 1.5513002e+00 -4.6887011e+00 
-1.4959632e-01 -9.9709548e-01 -5.1460699e+00 
3.8522461e-01 2.6855004e+00 -5.6676394e+00 
2.9836829e-01 2.6428613e+00 -6.3615901e+00 
-8.8001444e-02 -3.1944945e+00 -9.2495873e+00 
8.5588399e-02 2.5998002e+00 -8.1933279e+00 
1.2770593e-01 2.5999527e+00 -7.8049441e+00 
-1.3079432e-01 -3.1944982e+00 -8.8729164e+00 
-8.8005067e-02 -3.1517021e+00 -9.1549610e+00 
-1.4971195e-01 -9.7724633e-01 -5.0702003e+00 
2.1965331e-01 1.1367988e+00 -4.6887391e+00 
-2.3446470e-03 -1.0017210e-01 -4.8418405e+00 
-1.3079242e-01 -3.1517003e+00 -8.7787341e+00 
-7.6120340e-02 -5.2547598e-01 -4.9181398e+00 
-1.7360825e-01 -3.1945195e+00 -8.4954971e+00 
-8.8025599e-02 -3.1089296e+00 -9.0597190e+00 
-2.2255856e-01 -1.4997732e+00 -5.3697824e+00 
5.1740878e-01 2.7707564e+00 -4.6127313e+00 
1.6995255e-01 2.6001328e+00 -7.4162248e+00 
7.1593191e-02 3.1720985e-01 -4.7653318e+00 
4.4257616e-01 2.3554619e+00 -4.6125274e+00 
-1.3078501e-01 -3.1089223e+00 -8.6842667e+00 
-1.7359980e-01 -3.1516930e+00 -8.4020305e+00 
-2.2271975e-01 -1.4724721e+00 -5.2957134e+00 
4.7286690e-01 2.7282307e+00 -4.9457218e+00 
-2.2289335e-01 -1.4463916e+00 -5.2208190e+00 
-1.7358397e-01 -3.1089105e+00 -8.3085221e+00 
3.6803003e-01 1.9423827e+00 -4.6124157e+00 
2.1232369e-01 2.6003404e+00 -7.0272624e+00 
-2.1648240e-01 -3.1945483e+00 -8.1167061e+00 
-8.8052569e-02 -3.0662111e+00 -8.9634467e+00 
3.4121464e-01 2.6431267e+00 -5.9652502e+00 
-1.4972365e-01 -9.5781204e-01 -4.9940865e+00 
-1.3076086e-01 -3.0662080e+00 -8.5890927e+00 
-2.1647662e-01 -3.1516673e+00 -8.0242171e+00 
1.4560764e-01 7.2572539e-01 -4.6887995e+00 
4.2841113e-01 2.6857845e+00 -5.2645006e+00 
2.9368059e-01 1.5319269e+00 -4.6123853e+00 
-1.7353815e-01 -3.0662050e+00 -8.2145775e+00 
-2.1646113e-01 -3.1088752e+00 -7.9318872e+00 
-2.2308023e-01 -1.4211036e+00 -5.1453895e+00 
2.5482178e-01 2.6005745e+00 -6.6381695e+00 
-2.5944739e-01 -3.1945545e+00 -7.7359577e+00 
-8.8060389e-02 -3.0235659e+00 -8.8658557e+00 
-7.5922116e-02 -5.1205380e-01 -4.8416957e+00 
-2.1013829e-03 -9.2799294e-02 -4.7653210e+00 
-1.3070699e-01 -3.0235737e+00 -8.4928981e+00 
-2.5945211e-01 -3.1516040e+00 -7.6446937e+00 
-2.1640569e-01 -3.0661843e+00 -7.8393433e+00 
-1.7344998e-01 -3.0235870e+00 -8.1198775e+00 
-2.2320392e-01 -1.3963095e+00 -5.0696260e+00 
-2.5944334e-01 -3.1088034e+00 -7.5537714e+00 
2.1955983e-01 1.1243822e+00 -4.6124142e+00 
-1.4962921e-01 -9.3869143e-01 -4.9178379e+00 
7.1791331e-02 3.1817567e-01 -4.6888633e+00 
3.8419138e-01 2.6434128e+00 -5.5692286e+00 
-3.0251872e-01 -3.1945007e+00 -7.3526552e+00 
-8.8029288e-02 -2.9809972e+00 -8.7667366e+00 
-2.9626645e-01 -1.9320548e+00 -5.3695457e+00 
5.1626500e-01 2.7285178e+00 -4.5367161e+00 
2.9744876e-01 2.6008343e+00 -6.2490839e+00 
-2.1629469e-01 -3.0235923e+00 -7.7462713e+00 
-2.5938234e-01 -3.0661369e+00 -7.4628257e+00 
4.4170318e-01 2.3210067e+00 -4.5364899e+00 
-1.3061217e-01 -2.9810199e+00 -8.3954543e+00 
-2.9629905e-01 -1.9003941e+00 -5.2953332e+00 
-3.0254461e-01 -3.1514793e+00 -7.2628613e+00 
-2.2323839e-01 -1.3718327e+00 -4.9936471e+00 
8.5083612e-02 2.5577868e+00 -8.0462222e+00 
-2.9646287e-01 -1.8698906e+00 -5.2202891e+00 
1.4565990e-01 7.1994142e-01 -4.6124809e+00 
4.7173950e-01 2.6860815e+00 -4.8621766e+00 
-3.0254572e-01 -3.1086808e+00 -7.1735846e+00 
-1.7331125e-01 -2.9810528e+00 -8.0241813e+00 
3.6741902e-01 1.9154374e+00 -4.5363512e+00 
1.2710538e-01 2.5579550e+00 -7.6648634e+00 
-2.5925346e-01 -3.0235840e+00 -7.3715452e+00 
-7.5661186e-02 -4.9895353e-01 -4.7652910e+00 
1.6925625e-01 2.5581510e+00 -7.2832108e+00 
-2.1612205e-01 -2.9810873e+00 -7.6524261e+00 
-1.8453635e-03 -8.5800901e-02 -4.6889208e+00 
-3.0248237e-01 -3.0660564e+00 -7.0844551e+00 
-2.9663896e-01 -1.8400498e+00 -5.1448234e+00 
2.9330279e-01 1.5121924e+00 -4.5362944e+00 
-1.4943315e-01 -9.1984236e-01 -4.8415399e+00 
3.4020684e-01 2.6011180e+00 -5.8601689e+00 
-3.4570914e-01 -3.1943518e+00 -6.9661725e+00 
-8.7946571e-02 -2.9384996e+00 -8.6659466e+00 
4.2729842e-01 2.6437170e+00 -5.1737535e+00 
-1.3046825e-01 -2.9385394e+00 -8.2966021e+00 
-3.4575902e-01 -3.1512611e+00 -6.8781005e+00 
2.1153222e-01 2.5583749e+00 -6.9013690e+00 
-2.2315012e-01 -1.3475878e+00 -4.9175498e+00 
-1.7311788e-01 -2.9385924e+00 -7.9273183e+00 
-3.4578042e-01 -3.1084919e+00 -6.7907224e+00 
7.1955150e-02 3.1872773e-01 -4.6125679e+00 
-2.5904949e-01 -2.9811208e+00 -7.2796840e+00 
-3.0233143e-01 -3.0235619e+00 -6.9951562e+00 
-2.9680646e-01 -1.8105653e+00 -5.0690990e+00 
2.1938089e-01 1.1115572e+00 -4.5363034e+00 
-2.1588576e-01 -2.9386550e+00 -7.5576314e+00 
2.5393630e-01 2.5586261e+00 -6.5194554e+00 
-3.4570211e-01 -3.0659436e+00 -6.7036495e+00 
-3.7000526e-01 -2.3581335e+00 -5.3697395e+00 
5.1506727e-01 2.6863899e+00 -4.4609191e+00 
-7.5359443e-02 -4.8618154e-01 -4.6889699e+00 
-3.7006181e-01 -2.3225371e+00 -5.2952762e+00 
-3.8899133e-01 -3.1940268e+00 -6.5758397e+00 
-8.7805998e-02 -2.8960652e+00 -8.5633998e+00 
-1.4915354e-01 -9.0125955e-01 -4.7652501e+00 
4.4075773e-01 2.2864609e+00 -4.4606678e+00 
3.8309859e-01 2.6014236e+00 -5.4716077e+00 
1.4564591e-01 7.1373548e-01 -4.5363611e+00 
-3.0209806e-01 -2.9811529e+00 -6.9054393e+00 
-1.3027067e-01 -2.8961225e+00 -8.1962422e+00 
-2.9684444e-01 -1.7812852e+00 -4.9932495e+00 
-3.8911036e-01 -3.1509149e+00 -6.4897536e+00 
3.6672351e-01 1.8882559e+00 -4.4605003e+00 
-2.5877430e-01 -2.9387251e+00 -7.1870643e+00 
-3.7011709e-01 -2.2879765e+00 -5.2199196e+00 
-3.4553264e-01 -3.0235255e+00 -6.6165488e+00 
-3.8912205e-01 -3.1082336e+00 -6.4045501e+00 
-1.5939679e-03 -7.9184423e-02 -4.6126639e+00 
-1.7286789e-01 -2.8961951e+00 -7.8291795e+00 
-2.2294627e-01 -1.3235481e+00 -4.8413872e+00 
4.7055290e-01 2.6440356e+00 -4.7790521e+00 
2.9647105e-01 2.5589037e+00 -6.1376035e+00 
-3.7042197e-01 -2.2538695e+00 -5.1442687e+00 
2.9283818e-01 1.4921267e+00 -4.4604142e+00 
-2.1558770e-01 -2.8962821e+00 -7.4617731e+00 
-3.8904921e-01 -3.0657894e+00 -6.3198052e+00 
8.4525632e-02 2.5158695e+00 -7.9004697e+00 
-3.0178381e-01 -2.9388044e+00 -6.8151283e+00 
-3.4526203e-01 -2.9811901e+00 -6.5291641e+00 
-2.9674689e-01 -1.7521527e+00 -4.9172883e+00 
1.2645085e-01 2.5160532e+00 -7.5260774e+00 
7.2077002e-02 3.1886659e-01 -4.5364525e+00 
-4.3245641e-01 -3.1935342e+00 -6.1809331e+00 
-8.7606361e-02 -2.8536867e+00 -8.4590592e+00 
-3.7058579e-01 -2.2199441e+00 -5.0686300e+00 
2.1912236e-01 1.0983468e+00 -4.4603978e+00 
4.2612469e-01 2.6017488e+00 -5.0835928e+00 
1.6850494e-01 2.5162652e+00 -7.1514241e+00 
-2.5843090e-01 -2.8963830e+00 -7.0935721e+00 
-3.8883144e-01 -3.0234939e+00 -6.2351502e+00 
-1.3001753e-01 -2.8537611e+00 -8.0943259e+00 
-4.3251317e-01 -3.1504058e+00 -6.0971063e+00 
3.3913931e-01 2.5592062e+00 -5.7559628e+00 
-1.4880994e-01 -8.8295737e-01 -4.6890142e+00 
-1.7256125e-01 -2.8538519e+00 -7.7297080e+00 
-4.3261829e-01 -3.1078615e+00 -6.0143852e+00 
-2.2264150e-01 -1.2997202e+00 -4.7652102e+00 
-7.5035223e-02 -4.7375308e-01 -4.6127638e+00 
2.1068452e-01 2.5165056e+00 -6.7766209e+00 
-3.4491337e-01 -2.9388929e+00 -6.4413231e+00 
1.4556718e-01 7.0712096e-01 -4.4604380e+00 
-4.4418051e-01 -2.7777202e+00 -5.3706416e+00 
5.1381037e-01 2.6443672e+00 -4.3853281e+00 
-2.1522946e-01 -2.8539601e+00 -7.3647904e+00 
-3.7060059e-01 -2.1861061e+00 -4.9928996e+00 
-4.3244221e-01 -3.0656535e+00 -5.9322850e+00 
4.3974175e-01 2.2518426e+00 -4.3850504e+00 
-3.8853180e-01 -2.9812319e+00 -6.1503142e+00 
-1.3586550e-03 -7.2958419e-02 -4.5365662e+00 
-3.0139902e-01 -2.8964974e+00 -6.7241145e+00 
-2.9652024e-01 -1.7231619e+00 -4.8412541e+00 
-4.4382409e-01 -2.7387676e+00 -5.2955979e+00 
2.5299318e-01 2.5167740e+00 -6.4017866e+00 
3.6594979e-01 1.8608671e+00 -4.3848536e+00 
-4.4425436e-01 -2.7005236e+00 -5.2194133e+00 
3.8194434e-01 2.5595319e+00 -5.3746948e+00 
-4.3219620e-01 -3.0234600e+00 -5.8503589e+00 
-2.5802420e-01 -2.8540853e+00 -6.9991476e+00 
-4.7577676e-01 -3.1926299e+00 -5.7806921e+00 
-8.7349348e-02 -2.8113593e+00 -8.3529289e+00 
4.6930382e-01 2.6020900e+00 -4.6963129e+00 
-4.4449274e-01 -2.6624048e+00 -5.1437765e+00 
-4.7626299e-01 -3.1495785e+00 -5.6993519e+00 
-1.2970900e-01 -2.8114500e+00 -7.9908467e+00 
2.9229426e-01 1.4717593e+00 -4.3847373e+00 
-3.7046814e-01 -2.1523380e+00 -4.9170719e+00 
7.2153981e-02 3.1859585e-01 -4.4605219e+00 
-3.4449286e-01 -2.8966250e+00 -6.3529280e+00 
-4.7602879e-01 -3.1075764e+00 -5.6194839e+00 
2.9543408e-01 2.5170696e+00 -6.0270498e+00 
-3.8815698e-01 -2.9389917e+00 -6.0651335e+00 
-1.7219843e-01 -2.8115577e+00 -7.6288896e+00 
-2.2225412e-01 -1.2761259e+00 -4.6890611e+00 
-1.4842009e-01 -8.6495759e-01 -4.6128671e+00 
-7.4701844e-02 -4.6168419e-01 -4.5366952e+00 
2.1879043e-01 1.0847756e+00 -4.3846932e+00 
-4.3188211e-01 -2.9812813e+00 -5.7683200e+00 
-3.0094814e-01 -2.8542268e+00 -6.6323443e+00 
-2.9618093e-01 -1.6943313e+00 -4.7651840e+00 
-4.4457074e-01 -2.6242926e+00 -5.0682216e+00 
-2.1481300e-01 -2.8116841e+00 -7.2666656e+00 
-4.7581429e-01 -3.0655003e+00 -5.5404004e+00 
4.2488765e-01 2.5598785e+00 -4.9939652e+00 
8.3914786e-02 2.4740490e+00 -7.7559910e+00 
1.2574241e-01 2.4742481e+00 -7.3885005e+00 
3.3801070e-01 2.5173912e+00 -5.6525485e+00 
-3.7020388e-01 -2.1186549e+00 -4.8411551e+00 
-4.7557675e-01 -3.0234277e+00 -5.4615223e+00 
-1.1458454e-03 -6.7128036e-02 -4.4606390e+00 
-2.5755660e-01 -2.8118291e+00 -6.9037736e+00 
1.6769845e-01 2.4744760e+00 -7.0207745e+00 
1.4542713e-01 7.0011461e-01 -4.3847112e+00 
-3.8771439e-01 -2.8967620e+00 -5.9795291e+00 
-4.4450876e-01 -2.5861729e+00 -4.9926233e+00 
-5.1983342e-01 -3.1905436e+00 -5.3744022e+00 
-8.7038151e-02 -2.7690810e+00 -8.2450462e+00 
5.1248976e-01 2.6024458e+00 -4.3099381e+00 
-4.3150765e-01 -2.9390923e+00 -5.6860258e+00 
-3.4400564e-01 -2.8543823e+00 -6.2639374e+00 
-5.1922241e-01 -3.1490019e+00 -5.2955318e+00 
-1.2934621e-01 -2.7691871e+00 -7.8858318e+00 
4.3865615e-01 2.2171685e+00 -4.3096334e+00 
2.0978017e-01 2.4747330e+00 -6.6529269e+00 
3.6510249e-01 1.8332976e+00 -4.3094075e+00 
-5.1903356e-01 -3.1072411e+00 -5.2190089e+00 
-1.7178031e-01 -2.7693106e+00 -7.5267444e+00 
-2.2180081e-01 -1.2527920e+00 -4.6129774e+00 
-4.7530813e-01 -2.9813147e+00 -5.3825730e+00 
-3.0043413e-01 -2.8119915e+00 -6.5398056e+00 
-2.9574552e-01 -1.6656888e+00 -4.6891196e+00 
-1.4799804e-01 -8.4728175e-01 -4.5368367e+00 
-5.1890258e-01 -3.0653393e+00 -5.1433403e+00 
-4.4432009e-01 -2.5480624e+00 -4.9169149e+00 
2.9167724e-01 1.4511193e+00 -4.3092614e+00 
2.5199175e-01 2.4750187e+00 -6.2850757e+00 
-2.1433933e-01 -2.7694533e+00 -7.1674142e+00 
7.2186255e-02 3.1792366e-01 -4.3847806e+00 
3.8072701e-01 2.5177372e+00 -5.2784272e+00 